<PP_INFO>
Generated using APE Version-2.2.1
Author: Unknown Generation date: 2018/04/30
Pseudopotential for: C
Exchange-correlation: 
    0        The Pseudo was generated with a Non-Relativistic Calculation
State   n   l    occ     rc         ev
1s      1   0    2.00    0.40    -10.042041
2p      2   1    2.00    0.40     -0.194354
3d      3   2    0.00    0.40      0.000000
2s      2   0    2.00    0.40     -0.316574
3s      3   0    0.00    0.40     -0.001887
3p      3   1    0.00    0.40      0.000000
</PP_INFO>
<PP_HEADER>
   0                   Version Number
  C                    Element
   NC                  Norm - Conserving pseudopotential
    F                  Nonlinear Core Correction
 SLA  PW   PBX  PBC    PBE  Exchange-Correlation functional
    6.00000000000      Z valence
    0.00000000000      Total energy
  0.0000000  0.0000000 Suggested cutoff for wfc and rho
    2                  Max angular momentum component
  400                  Number of points in mesh
    6    3             Number of Wavefunctions, Number of Projectors
 Wavefunctions         nl  l   occ
                       1s  0  2.00
                       2p  1  2.00
                       3d  2  0.00
                       2s  0  2.00
                       3s  0  0.00
                       3p  1  0.00
</PP_HEADER>
<PP_MESH>
  <PP_R>
  2.44948968090E-05  2.54278125286E-05  2.63962593936E-05  2.74015906476E-05
  2.84452110741E-05  2.95285789595E-05  3.06532081303E-05  3.18206700691E-05
  3.30325961101E-05  3.42906797187E-05  3.55966788578E-05  3.69524184443E-05
  3.83597928991E-05  3.98207687944E-05  4.13373876013E-05  4.29117685427E-05
  4.45461115547E-05  4.62427003601E-05  4.80039056600E-05  4.98321884464E-05
  5.17301034409E-05  5.37003026645E-05  5.57455391434E-05  5.78686707560E-05
  6.00726642261E-05  6.23605992687E-05  6.47356728929E-05  6.72012038698E-05
  6.97606373695E-05  7.24175497752E-05  7.51756536809E-05  7.80388030787E-05
  8.10109987444E-05  8.40963938280E-05  8.72992996566E-05  9.06241917593E-05
  9.40757161207E-05  9.76586956729E-05  1.01378137035E-04  1.05239237508E-04
  1.09247392339E-04  1.13408202259E-04  1.17727481309E-04  1.22211264964E-04
  1.26865818567E-04  1.31697646083E-04  1.36713499190E-04  1.41920386709E-04
  1.47325584401E-04  1.52936645131E-04  1.58761409426E-04  1.64808016426E-04
  1.71084915261E-04  1.77600876854E-04  1.84365006179E-04  1.91386754984E-04
  1.98675934997E-04  2.06242731637E-04  2.14097718244E-04  2.22251870860E-04
  2.30716583557E-04  2.39503684366E-04  2.48625451801E-04  2.58094632017E-04
  2.67924456622E-04  2.78128661163E-04  2.88721504320E-04  2.99717787834E-04
  3.11132877185E-04  3.22982723063E-04  3.35283883662E-04  3.48053547810E-04
  3.61309558992E-04  3.75070440282E-04  3.89355420228E-04  4.04184459716E-04
  4.19578279866E-04  4.35558390986E-04  4.52147122627E-04  4.69367654787E-04
  4.87244050300E-04  5.05801288460E-04  5.25065299926E-04  5.45063002954E-04
  5.65822341014E-04  5.87372321834E-04  6.09743057933E-04  6.32965808699E-04
  6.57073024071E-04  6.82098389878E-04  7.08076874914E-04  7.35044779798E-04
  7.63039787697E-04  7.92101016987E-04  8.22269075909E-04  8.53586119317E-04
  8.86095907577E-04  9.19843867720E-04  9.54877156917E-04  9.91244728370E-04
  1.02899739972E-03  1.06818792406E-03  1.10887106364E-03  1.15110366639E-03
  1.19494474535E-03  1.24045556116E-03  1.28769970762E-03  1.33674320059E-03
  1.38765457019E-03  1.44050495662E-03  1.49536820951E-03  1.55232099115E-03
  1.61144288358E-03  1.67281649985E-03  1.73652759939E-03  1.80266520787E-03
  1.87132174162E-03  1.94259313675E-03  2.01657898319E-03  2.09338266389E-03
  2.17311149922E-03  2.25587689700E-03  2.34179450813E-03  2.43098438820E-03
  2.52357116525E-03  2.61968421393E-03  2.71945783627E-03  2.82303144934E-03
  2.93054978005E-03  3.04216306743E-03  3.15802727250E-03  3.27830429626E-03
  3.40316220586E-03  3.53277546950E-03  3.66732520021E-03  3.80699940887E-03
  3.95199326700E-03  4.10250937944E-03  4.25875806747E-03  4.42095766268E-03
  4.58933481206E-03  4.76412479472E-03  4.94557185063E-03  5.13392952193E-03
  5.32946100719E-03  5.53243952917E-03  5.74314871666E-03  5.96188300076E-03
  6.18894802631E-03  6.42466107896E-03  6.66935152858E-03  6.92336128942E-03
  7.18704529795E-03  7.46077200878E-03  7.74492390954E-03  8.03989805531E-03
  8.34610662349E-03  8.66397748969E-03  8.99395482567E-03  9.33649971996E-03
  9.69209082215E-03  1.00612250118E-02  1.04444180926E-02  1.08422055132E-02
  1.12551431155E-02  1.16838079113E-02  1.21287988884E-02  1.25907378478E-02
  1.30702702725E-02  1.35680662294E-02  1.40848213057E-02  1.46212575808E-02
  1.51781246353E-02  1.57562005985E-02  1.63562932355E-02  1.69792410761E-02
  1.76259145865E-02  1.82972173855E-02  1.89940875074E-02  1.97174987123E-02
  2.04684618473E-02  2.12480262586E-02  2.20572812582E-02  2.28973576454E-02
  2.37694292876E-02  2.46747147599E-02  2.56144790485E-02  2.65900353181E-02
  2.76027467463E-02  2.86540284293E-02  2.97453493587E-02  3.08782344742E-02
  3.20542667947E-02  3.32750896299E-02  3.45424088772E-02  3.58579954046E-02
  3.72236875260E-02  3.86413935692E-02  4.01130945430E-02  4.16408469051E-02
  4.32267854357E-02  4.48731262207E-02  4.65821697477E-02  4.83563041214E-02
  5.01980084000E-02  5.21098560592E-02  5.40945185887E-02  5.61547692249E-02
  5.82934868259E-02  6.05136598943E-02  6.28183907533E-02  6.52108998815E-02
  6.76945304133E-02  7.02727528097E-02  7.29491697085E-02  7.57275209578E-02
  7.86116888421E-02  8.16057035070E-02  8.47137485909E-02  8.79401670707E-02
  9.12894673303E-02  9.47663294607E-02  9.83756117993E-02  1.02122357719E-01
  1.06011802675E-01  1.10049381520E-01  1.14240736101E-01  1.18591723139E-01
  1.23108422417E-01  1.27797145272E-01  1.32664443414E-01  1.37717118086E-01
  1.42962229560E-01  1.48407107009E-01  1.54059358746E-01  1.59926882853E-01
  1.66017878220E-01  1.72340856003E-01  1.78904651513E-01  1.85718436564E-01
  1.92791732289E-01  2.00134422445E-01  2.07756767220E-01  2.15669417578E-01
  2.23883430131E-01  2.32410282600E-01  2.41261889843E-01  2.50450620513E-01
  2.59989314335E-01  2.69891300049E-01  2.80170414035E-01  2.90841019649E-01
  3.01918027291E-01  3.13416915238E-01  3.25353751277E-01  3.37745215154E-01
  3.50608621883E-01  3.63961945937E-01  3.77823846370E-01  3.92213692886E-01
  4.07151592906E-01  4.22658419664E-01  4.38755841375E-01  4.55466351514E-01
  4.72813300243E-01  4.90820927042E-01  5.09514394579E-01  5.28919823871E-01
  5.49064330783E-01  5.69976063919E-01  5.91684243951E-01  6.14219204458E-01
  6.37612434303E-01  6.61896621642E-01  6.87105699593E-01  7.13274893656E-01
  7.40440770935E-01  7.68641291231E-01  7.97915860089E-01  8.28305383857E-01
  8.59852326848E-01  8.92600770676E-01  9.26596475853E-01  9.61886945732E-01
  9.98521492883E-01  1.03655130800E+00  1.07602953144E+00  1.11701132747E+00
  1.15955396132E+00  1.20371687928E+00  1.24956179169E+00  1.29715275919E+00
  1.34655628227E+00  1.39784139413E+00  1.45107975722E+00  1.50634576329E+00
  1.56371663743E+00  1.62327254588E+00  1.68509670816E+00  1.74927551325E+00
  1.81589864038E+00  1.88505918430E+00  1.95685378540E+00  2.03138276471E+00
  2.10875026408E+00  2.18906439177E+00  2.27243737342E+00  2.35898570894E+00
  2.44883033524E+00  2.54209679528E+00  2.63891541343E+00  2.73942147766E+00
  2.84375542848E+00  2.95206305527E+00  3.06449569995E+00  3.18121046847E+00
  3.30237045034E+00  3.42814494651E+00  3.55870970596E+00  3.69424717125E+00
  3.83494673349E+00  3.98100499694E+00  4.13262605378E+00  4.29002176925E+00
  4.45341207773E+00  4.62302529004E+00  4.79909841248E+00  4.98187747800E+00
  5.17161788999E+00  5.36858477917E+00  5.57305337405E+00  5.78530938555E+00
  6.00564940618E+00  6.23438132454E+00  6.47182475551E+00  6.71831148684E+00
  6.97418594281E+00  7.23980566548E+00  7.51554181430E+00  7.80177968476E+00
  8.09891924673E+00  8.40737570343E+00  8.72758007151E+00  9.05997978342E+00
  9.40503931255E+00  9.76324082228E+00  1.01350848398E+01  1.05210909552E+01
  1.09217985481E+01  1.13377675408E+01  1.17695791809E+01  1.22178368533E+01
  1.26831669238E+01  1.31662196139E+01  1.36676699095E+01  1.41882185041E+01
  1.47285927779E+01  1.52895478143E+01  1.58718674546E+01  1.64763653941E+01
  1.71038863180E+01  1.77553070827E+01  1.84315379406E+01  1.91335238120E+01
  1.98622456055E+01  2.06187215889E+01  2.14040088117E+01  2.22192045824E+01
  2.30654480017E+01  2.39439215543E+01  2.48558527610E+01  2.58025158944E+01
  2.67852337588E+01  2.78053795394E+01  2.88643787205E+01  2.99637110775E+01
  3.11049127449E+01  3.22895783625E+01  3.35193633037E+01  3.47959859888E+01
  3.61212302860E+01  3.74969480041E+01  3.89250614803E+01  4.04075662658E+01
  4.19465339149E+01  4.35441148795E+01  4.52025415135E+01  4.69241311928E+01
  4.87112895531E+01  5.05665138514E+01  5.24923964556E+01  5.44916284668E+01
  5.65670034797E+01  5.87214214863E+01  6.09578929280E+01  6.32795429022E+01
  6.56896155292E+01  6.81914784853E+01  7.07886277085E+01  7.34846922835E+01
  </PP_R>
  <PP_RAB>
  9.15588723670E-07  9.50459950915E-07  9.86659288105E-07  1.02423731780E-06
  1.06324654906E-06  1.10374149081E-06  1.14577872800E-06  1.18941700069E-06
  1.23471728613E-06  1.28174288392E-06  1.33055950455E-06  1.38123536113E-06
  1.43384126476E-06  1.48845072344E-06  1.54514004483E-06  1.60398844285E-06
  1.66507814835E-06  1.72849452406E-06  1.79432618382E-06  1.86266511645E-06
  1.93360681427E-06  2.00725040651E-06  2.08369879786E-06  2.16305881225E-06
  2.24544134213E-06  2.33096150340E-06  2.41973879629E-06  2.51189727232E-06
  2.60756570765E-06  2.70687778303E-06  2.80997227061E-06  2.91699322780E-06
  3.02809019862E-06  3.14341842264E-06  3.26313905190E-06  3.38741937610E-06
  3.51643305635E-06  3.65036036785E-06  3.78938845178E-06  3.93371157679E-06
  4.08353141048E-06  4.23905730119E-06  4.40050657053E-06  4.56810481705E-06
  4.74208623145E-06  4.92269392388E-06  5.11018026358E-06  5.30480723159E-06
  5.50684678678E-06  5.71658124587E-06  5.93430367793E-06  6.16031831392E-06
  6.39494097175E-06  6.63849949763E-06  6.89133422414E-06  7.15379844584E-06
  7.42625891288E-06  7.70909634353E-06  8.00270595612E-06  8.30749802133E-06
  8.62389843546E-06  8.95234931554E-06  9.29330961713E-06  9.64725577564E-06
  1.00146823720E-05  1.03961028240E-05  1.07920501032E-05  1.12030774803E-05
  1.16297592978E-05  1.20726917726E-05  1.25324938293E-05  1.30098079650E-05
  1.35053011469E-05  1.40196657443E-05  1.45536204965E-05  1.51079115166E-05
  1.56833133341E-05  1.62806299776E-05  1.69006960978E-05  1.75443781343E-05
  1.82125755257E-05  1.89062219670E-05  1.96262867139E-05  2.03737759373E-05
  2.11497341292E-05  2.19552455624E-05  2.27914358053E-05  2.36594732949E-05
  2.45605709694E-05  2.54959879633E-05  2.64670313665E-05  2.74750580507E-05
  2.85214765661E-05  2.96077491085E-05  3.07353935636E-05  3.19059856272E-05
  3.31211610072E-05  3.43826177096E-05  3.56921184106E-05  3.70514929199E-05
  3.84626407376E-05  3.99275337086E-05  4.14482187775E-05  4.30268208490E-05
  4.46655457576E-05  4.63666833490E-05  4.81326106806E-05  4.99657953427E-05
  5.18687989062E-05  5.38442805027E-05  5.58950005397E-05  5.80238245578E-05
  6.02337272352E-05  6.25277965437E-05  6.49092380644E-05  6.73813794662E-05
  6.99476751563E-05  7.26117111067E-05  7.53772098653E-05  7.82480357573E-05
  8.12282002851E-05  8.43218677338E-05  8.75333609900E-05  9.08671675821E-05
  9.43279459512E-05  9.79205319604E-05  1.01649945652E-04  1.05521398262E-04
  1.09540299504E-04  1.13712265123E-04  1.18043124749E-04  1.22538930040E-04
  1.27205963136E-04  1.32050745441E-04  1.37080046734E-04  1.42300894629E-04
  1.47720584393E-04  1.53346689143E-04  1.59187070426E-04  1.65249889204E-04
  1.71543617261E-04  1.78077049036E-04  1.84859313915E-04  1.91899888987E-04
  1.99208612286E-04  2.06795696540E-04  2.14671743438E-04  2.22847758449E-04
  2.31335166196E-04  2.40145826421E-04  2.49292050559E-04  2.58786618940E-04
  2.68642798645E-04  2.78874362051E-04  2.89495606066E-04  3.00521372116E-04
  3.11967066879E-04  3.23848683811E-04  3.36182825500E-04  3.48986726859E-04
  3.62278279216E-04  3.76076055307E-04  3.90399335233E-04  4.05268133398E-04
  4.20703226481E-04  4.36726182459E-04  4.53359390753E-04  4.70626093509E-04
  4.88550418077E-04  5.07157410725E-04  5.26473071634E-04  5.46524391233E-04
  5.67339387911E-04  5.88947147169E-04  6.11377862264E-04  6.34662876393E-04
  6.58834726499E-04  6.83927188726E-04  7.09975325625E-04  7.37015535141E-04
  7.65085601476E-04  7.94224747886E-04  8.24473691491E-04  8.55874700165E-04
  8.88471651603E-04  9.22310094632E-04  9.57437312856E-04  9.93902390731E-04
  1.03175628215E-03  1.07105188163E-03  1.11184409825E-03  1.15418993237E-03
  1.19814855525E-03  1.24378139176E-03  1.29115220623E-03  1.34032719149E-03
  1.39137506142E-03  1.44436714695E-03  1.49937749570E-03  1.55648297552E-03
  1.61576338182E-03  1.67730154913E-03  1.74118346681E-03  1.80749839924E-03
  1.87633901053E-03  1.94780149399E-03  2.02198570659E-03  2.09899530843E-03
  2.17893790765E-03  2.26192521075E-03  2.34807317872E-03  2.43750218902E-03
  2.53033720386E-03  2.62670794474E-03  2.72674907377E-03  2.83060038183E-03
  2.93840698385E-03  3.05031952168E-03  3.16649437450E-03  3.28709387736E-03
  3.41228654805E-03  3.54224732254E-03  3.67715779943E-03  3.81720649370E-03
  3.96258910015E-03  4.11350876683E-03  4.27017637891E-03  4.43281085336E-03
  4.60163944485E-03  4.77689806330E-03  4.95883160353E-03  5.14769428745E-03
  5.34375001929E-03  5.54727275439E-03  5.75854688196E-03  5.97786762252E-03
  6.20554144037E-03  6.44188647188E-03  6.68723296998E-03  6.94192376565E-03
  7.20631474698E-03  7.48077535647E-03  7.76568910725E-03  8.06145411895E-03
  8.36848367408E-03  8.68720679544E-03  9.01806884568E-03  9.36153214956E-03
  9.71807664002E-03  1.00882005288E-02  1.04724210025E-02  1.08712749455E-02
  1.12853196899E-02  1.17151337945E-02  1.21613178531E-02  1.26244953338E-02
  1.31053134504E-02  1.36044440662E-02  1.41225846333E-02  1.46604591673E-02
  1.52188192584E-02  1.57984451221E-02  1.64001466893E-02  1.70247647381E-02
  1.76731720684E-02  1.83462747218E-02  1.90450132475E-02  1.97703640165E-02
  2.05233405862E-02  2.13049951161E-02  2.21164198387E-02  2.29587485854E-02
  2.38331583705E-02  2.47408710367E-02  2.56831549617E-02  2.66613268306E-02
  2.76767534764E-02  2.87308537891E-02  2.98251006987E-02  3.09610232338E-02
  3.21402086574E-02  3.33643046852E-02  3.46350217883E-02  3.59541355827E-02
  3.73234893110E-02  3.87449964175E-02  4.02206432224E-02  4.17524916970E-02
  4.33426823453E-02  4.49934371945E-02  4.67070629004E-02  4.84859539704E-02
  5.03325961094E-02  5.22495696931E-02  5.42395533736E-02  5.63053278229E-02
  5.84497796175E-02  6.06759052728E-02  6.29868154297E-02  6.53857392014E-02
  6.78760286855E-02  7.04611636479E-02  7.31447563856E-02  7.59305567736E-02
  7.88224575055E-02  8.18244995323E-02  8.49408777091E-02  8.81759466570E-02
  9.15342268476E-02  9.50204109198E-02  9.86393702368E-02  1.02396161693E-01
  1.06296034782E-01  1.10344438927E-01  1.14547031101E-01  1.18909683730E-01
  1.23438492894E-01  1.28139786854E-01  1.33020134887E-01  1.38086356469E-01
  1.43345530803E-01  1.48805006712E-01  1.54472412906E-01  1.60355668646E-01
  1.66462994803E-01  1.72802925352E-01  1.79384319293E-01  1.86216373032E-01
  1.93308633228E-01  2.00671010137E-01  2.08313791459E-01  2.16247656712E-01
  2.24483692154E-01  2.33033406277E-01  2.41908745887E-01  2.51122112798E-01
  2.60686381159E-01  2.70614915448E-01  2.80921589141E-01  2.91620804105E-01
  3.02727510715E-01  3.14257228750E-01  3.26226069075E-01  3.38650756157E-01
  3.51548651434E-01  3.64937777573E-01  3.78836843652E-01  3.93265271310E-01
  4.08243221878E-01  4.23791624554E-01  4.39932205649E-01  4.56687518945E-01
  4.74080977210E-01  4.92136884914E-01  5.10880472188E-01  5.30337930084E-01
  5.50536447168E-01  5.71504247513E-01  5.93270630138E-01  6.15866009948E-01
  6.39321960235E-01  6.63671256793E-01  6.88947923721E-01  7.15187280964E-01
  7.42425993666E-01  7.70702123405E-01  8.00055181376E-01  8.30526183604E-01
  8.62157708253E-01  8.94993955127E-01  9.29080807428E-01  9.64465895871E-01
  1.00119866524E+00  1.03933044349E+00  1.07891451343E+00  1.12000618724E+00
  1.16266288370E+00  1.20694420847E+00  1.25291203734E+00  1.30063060272E+00
  1.35016658338E+00  1.40158919763E+00  1.45497030003E+00  1.51038448181E+00
  1.56790917508E+00  1.62762476105E+00  1.68961468234E+00  1.75396555957E+00
  1.82076731239E+00  1.89011328517E+00  1.96210037739E+00  2.03682917906E+00
  2.11440411126E+00  2.19493357208E+00  2.27853008807E+00  2.36531047148E+00
  2.45539598348E+00  2.54891250362E+00  2.64599070571E+00  2.74676624040E+00
  </PP_RAB>
</PP_MESH>
<PP_LOCAL>
 -2.58817451752E+01 -2.58817451738E+01 -2.58817451724E+01 -2.58817451708E+01
 -2.58817451692E+01 -2.58817451673E+01 -2.58817451654E+01 -2.58817451633E+01
 -2.58817451610E+01 -2.58817451586E+01 -2.58817451559E+01 -2.58817451531E+01
 -2.58817451500E+01 -2.58817451467E+01 -2.58817451432E+01 -2.58817451393E+01
 -2.58817451352E+01 -2.58817451308E+01 -2.58817451260E+01 -2.58817451208E+01
 -2.58817451153E+01 -2.58817451093E+01 -2.58817451028E+01 -2.58817450958E+01
 -2.58817450883E+01 -2.58817450802E+01 -2.58817450715E+01 -2.58817450621E+01
 -2.58817450520E+01 -2.58817450411E+01 -2.58817450293E+01 -2.58817450167E+01
 -2.58817450030E+01 -2.58817449883E+01 -2.58817449725E+01 -2.58817449554E+01
 -2.58817449370E+01 -2.58817449171E+01 -2.58817448958E+01 -2.58817448727E+01
 -2.58817448479E+01 -2.58817448212E+01 -2.58817447923E+01 -2.58817447613E+01
 -2.58817447278E+01 -2.58817446917E+01 -2.58817446529E+01 -2.58817446110E+01
 -2.58817445658E+01 -2.58817445172E+01 -2.58817444647E+01 -2.58817444083E+01
 -2.58817443474E+01 -2.58817442818E+01 -2.58817442111E+01 -2.58817441349E+01
 -2.58817440528E+01 -2.58817439643E+01 -2.58817438690E+01 -2.58817437663E+01
 -2.58817436556E+01 -2.58817435363E+01 -2.58817434077E+01 -2.58817432692E+01
 -2.58817431199E+01 -2.58817429590E+01 -2.58817427856E+01 -2.58817425988E+01
 -2.58817423974E+01 -2.58817421805E+01 -2.58817419467E+01 -2.58817416947E+01
 -2.58817414232E+01 -2.58817411306E+01 -2.58817408153E+01 -2.58817404756E+01
 -2.58817401094E+01 -2.58817397149E+01 -2.58817392897E+01 -2.58817388315E+01
 -2.58817383377E+01 -2.58817378056E+01 -2.58817372322E+01 -2.58817366143E+01
 -2.58817359485E+01 -2.58817352309E+01 -2.58817344577E+01 -2.58817336244E+01
 -2.58817327264E+01 -2.58817317588E+01 -2.58817307160E+01 -2.58817295923E+01
 -2.58817283814E+01 -2.58817270765E+01 -2.58817256702E+01 -2.58817241549E+01
 -2.58817225219E+01 -2.58817207621E+01 -2.58817188658E+01 -2.58817168222E+01
 -2.58817146200E+01 -2.58817122469E+01 -2.58817096896E+01 -2.58817069337E+01
 -2.58817039640E+01 -2.58817007637E+01 -2.58816973150E+01 -2.58816935986E+01
 -2.58816895938E+01 -2.58816852781E+01 -2.58816806274E+01 -2.58816756156E+01
 -2.58816702149E+01 -2.58816643949E+01 -2.58816581232E+01 -2.58816513647E+01
 -2.58816440815E+01 -2.58816362330E+01 -2.58816277753E+01 -2.58816186611E+01
 -2.58816088394E+01 -2.58815982554E+01 -2.58815868497E+01 -2.58815745588E+01
 -2.58815613138E+01 -2.58815470407E+01 -2.58815316597E+01 -2.58815150848E+01
 -2.58814972234E+01 -2.58814779755E+01 -2.58814572335E+01 -2.58814348816E+01
 -2.58814107946E+01 -2.58813848380E+01 -2.58813568667E+01 -2.58813267241E+01
 -2.58812942419E+01 -2.58812592384E+01 -2.58812215179E+01 -2.58811808696E+01
 -2.58811370661E+01 -2.58810898626E+01 -2.58810389952E+01 -2.58809841796E+01
 -2.58809251092E+01 -2.58808614538E+01 -2.58807928576E+01 -2.58807189372E+01
 -2.58806392792E+01 -2.58805534384E+01 -2.58804609349E+01 -2.58803612517E+01
 -2.58802538315E+01 -2.58801380738E+01 -2.58800133317E+01 -2.58798789079E+01
 -2.58797340510E+01 -2.58795779515E+01 -2.58794097368E+01 -2.58792284669E+01
 -2.58790331286E+01 -2.58788226305E+01 -2.58785957960E+01 -2.58783513577E+01
 -2.58780879498E+01 -2.58778041004E+01 -2.58774982236E+01 -2.58771686105E+01
 -2.58768134198E+01 -2.58764306673E+01 -2.58760182150E+01 -2.58755737593E+01
 -2.58750948179E+01 -2.58745787163E+01 -2.58740225727E+01 -2.58734232819E+01
 -2.58727774984E+01 -2.58720816174E+01 -2.58713317552E+01 -2.58705237270E+01
 -2.58696530246E+01 -2.58687147905E+01 -2.58677037915E+01 -2.58666143897E+01
 -2.58654405110E+01 -2.58641756121E+01 -2.58628126435E+01 -2.58613440116E+01
 -2.58597615359E+01 -2.58580564048E+01 -2.58562191264E+01 -2.58542394769E+01
 -2.58521064445E+01 -2.58498081684E+01 -2.58473318751E+01 -2.58446638078E+01
 -2.58417891516E+01 -2.58386919534E+01 -2.58353550350E+01 -2.58317599000E+01
 -2.58278866345E+01 -2.58237137995E+01 -2.58192183161E+01 -2.58143753418E+01
 -2.58091581385E+01 -2.58035379302E+01 -2.57974837511E+01 -2.57909622825E+01
 -2.57839376784E+01 -2.57763713785E+01 -2.57682219090E+01 -2.57594446684E+01
 -2.57499916999E+01 -2.57398114478E+01 -2.57288484978E+01 -2.57170433002E+01
 -2.57043318758E+01 -2.56906455021E+01 -2.56759103809E+01 -2.56600472850E+01
 -2.56429711846E+01 -2.56245908513E+01 -2.56048084408E+01 -2.55835190520E+01
 -2.55606102647E+01 -2.55359616532E+01 -2.55094442777E+01 -2.54809201543E+01
 -2.54502417024E+01 -2.54172511736E+01 -2.53817800614E+01 -2.53436484962E+01
 -2.53026646272E+01 -2.52586239962E+01 -2.52113089077E+01 -2.51604878019E+01
 -2.51059146376E+01 -2.50473282938E+01 -2.49844520005E+01 -2.49169928120E+01
 -2.48446411354E+01 -2.47670703323E+01 -2.46839364133E+01 -2.45948778467E+01
 -2.44995155069E+01 -2.43974527913E+01 -2.42882759382E+01 -2.41715545801E+01
 -2.40468425737E+01 -2.39136791487E+01 -2.37715904231E+01 -2.36200913349E+01
 -2.34586880451E+01 -2.32868808663E+01 -2.31041677760E+01 -2.29100485705E+01
 -2.27040297173E+01 -2.24856299577E+01 -2.22543867062E+01 -2.20098632831E+01
 -2.17516570062E+01 -2.14794081461E+01 -2.11928097299E+01 -2.08916181509E+01
 -2.05756645053E+01 -2.02448665402E+01 -1.98992410495E+01 -1.95389165033E+01
 -1.91641456402E+01 -1.87753176907E+01 -1.83729698370E+01 -1.79577974535E+01
 -1.75306626105E+01 -1.70926002710E+01 -1.66448215627E+01 -1.61887134768E+01
 -1.57258343162E+01 -1.52579042127E+01 -1.47867900219E+01 -1.43144839052E+01
 -1.38430748857E+01 -1.33747126021E+01 -1.29115623568E+01 -1.24557502983E+01
 -1.20092971525E+01 -1.15740382507E+01 -1.11515266096E+01 -1.07429144609E+01
 -1.03488068691E+01 -9.96912164856E+00 -9.60336662006E+00 -9.25103070164E+00
 -8.91162156237E+00 -8.58466493435E+00 -8.26970394997E+00 -7.96629850358E+00
 -7.67402463643E+00 -7.39247394434E+00 -7.12125300698E+00 -6.85998283811E+00
 -6.60829835607E+00 -6.36584787359E+00 -6.13229260638E+00 -5.90730619974E+00
 -5.69057427253E+00 -5.48179397788E+00 -5.28067357998E+00 -5.08693204649E+00
 -4.90029865578E+00 -4.72051261868E+00 -4.54732271406E+00 -4.38048693780E+00
 -4.21977216459E+00 -4.06495382224E+00 -3.91581557782E+00 -3.77214903539E+00
 -3.63375344482E+00 -3.50043542127E+00 -3.37200867492E+00 -3.24829375072E+00
 -3.12911777763E+00 -3.01431422699E+00 -2.90372267993E+00 -2.79718860310E+00
 -2.69456313284E+00 -2.59570286709E+00 -2.50046966505E+00 -2.40873045413E+00
 -2.32035704402E+00 -2.23522594755E+00 -2.15321820815E+00 -2.07421923363E+00
 -1.99811863604E+00 -1.92481007743E+00 -1.85419112126E+00 -1.78616308927E+00
 -1.72063092358E+00 -1.65750305388E+00 -1.59669126944E+00 -1.53811059590E+00
 -1.48167917649E+00 -1.42731815769E+00 -1.37495157898E+00 -1.32450626678E+00
 -1.27591173213E+00 -1.22910007224E+00 -1.18400587560E+00 -1.14056613055E+00
 -1.09872013726E+00 -1.05840942291E+00 -1.01957765996E+00 -9.82170587483E-01
 -9.46135935295E-01 -9.11423350959E-01 -8.77984329402E-01 -8.45772145145E-01
 -8.14741787009E-01 -7.84849895221E-01 -7.56054700828E-01 -7.28315967327E-01
 -7.01594934443E-01 -6.75854263972E-01 -6.51057987599E-01 -6.27171456648E-01
 -6.04161293658E-01 -5.81995345747E-01 -5.60642639683E-01 -5.40073338606E-01
 -5.20258700334E-01 -5.01171037200E-01 -4.82783677364E-01 -4.65070927545E-01
 -4.48008037116E-01 -4.31571163522E-01 -4.15737338960E-01 -4.00484438291E-01
 -3.85791148119E-01 -3.71636937011E-01 -3.58002026807E-01 -3.44867364985E-01
 -3.32214598035E-01 -3.20026045818E-01 -3.08284676855E-01 -2.96974084533E-01
 -2.86078464179E-01 -2.75582590970E-01 -2.65471798669E-01 -2.55731959121E-01
 -2.46349462519E-01 -2.37311198380E-01 -2.28604537233E-01 -2.20217312964E-01
 -2.12137805820E-01 -2.04354726031E-01 -1.96857198036E-01 -1.89634745285E-01
 -1.82677275599E-01 -1.75975067069E-01 -1.69518754473E-01 -1.63299316186E-01
</PP_LOCAL>
<PP_NONLOCAL>
  <PP_BETA>
    1    0             Beta    L
   400
 -4.58074752914E-04 -4.75521056009E-04 -4.93631822222E-04 -5.12432358481E-04
 -5.31948935565E-04 -5.52208824814E-04 -5.73240336242E-04 -5.95072858094E-04
 -6.17736897913E-04 -6.41264125171E-04 -6.65687415524E-04 -6.91040896754E-04
 -7.17359996460E-04 -7.44681491559E-04 -7.73043559687E-04 -8.02485832543E-04
 -8.33049451278E-04 -8.64777123980E-04 -8.97713185358E-04 -9.31903658699E-04
 -9.67396320183E-04 -1.00424076564E-03 -1.04248847988E-03 -1.08219290862E-03
 -1.12340953316E-03 -1.16619594797E-03 -1.21061194111E-03 -1.25671957786E-03
 -1.30458328738E-03 -1.35426995280E-03 -1.40584900469E-03 -1.45939251807E-03
 -1.51497531315E-03 -1.57267505989E-03 -1.63257238658E-03 -1.69475099249E-03
 -1.75929776485E-03 -1.82630290031E-03 -1.89586003100E-03 -1.96806635537E-03
 -2.04302277405E-03 -2.12083403092E-03 -2.20160885946E-03 -2.28546013474E-03
 -2.37250503124E-03 -2.46286518657E-03 -2.55666687154E-03 -2.65404116666E-03
 -2.75512414536E-03 -2.86005706421E-03 -2.96898656042E-03 -3.08206485680E-03
 -3.19944997455E-03 -3.32130595424E-03 -3.44780308511E-03 -3.57911814316E-03
 -3.71543463834E-03 -3.85694307109E-03 -4.00384119874E-03 -4.15633431207E-03
 -4.31463552231E-03 -4.47896605922E-03 -4.64955558045E-03 -4.82664249278E-03
 -5.01047428547E-03 -5.20130787652E-03 -5.39940997199E-03 -5.60505743911E-03
 -5.81853769359E-03 -6.04014910170E-03 -6.27020139781E-03 -6.50901611767E-03
 -6.75692704844E-03 -7.01428069577E-03 -7.28143676877E-03 -7.55876868347E-03
 -7.84666408560E-03 -8.14552539323E-03 -8.45577036021E-03 -8.77783266118E-03
 -9.11216249884E-03 -9.45922723459E-03 -9.81951204313E-03 -1.01935205923E-02
 -1.05817757485E-02 -1.09848203101E-02 -1.14032177674E-02 -1.18375530932E-02
 -1.22884335627E-02 -1.27564896054E-02 -1.32423756891E-02 -1.37467712381E-02
 -1.42703815870E-02 -1.48139389701E-02 -1.53782035501E-02 -1.59639644850E-02
 -1.65720410371E-02 -1.72032837239E-02 -1.78585755133E-02 -1.85388330658E-02
 -1.92450080228E-02 -1.99780883464E-02 -2.07390997091E-02 -2.15291069388E-02
 -2.23492155180E-02 -2.32005731423E-02 -2.40843713381E-02 -2.50018471436E-02
 -2.59542848546E-02 -2.69430178378E-02 -2.79694304150E-02 -2.90349598195E-02
 -3.01410982301E-02 -3.12893948824E-02 -3.24814582640E-02 -3.37189583940E-02
 -3.50036291925E-02 -3.63372709425E-02 -3.77217528474E-02 -3.91590156902E-02
 -4.06510745959E-02 -4.22000219032E-02 -4.38080301490E-02 -4.54773551708E-02
 -4.72103393321E-02 -4.90094148744E-02 -5.08771074039E-02 -5.28160395151E-02
 -5.48289345601E-02 -5.69186205675E-02 -5.90880343191E-02 -6.13402255889E-02
 -6.36783615540E-02 -6.61057313822E-02 -6.86257510056E-02 -7.12419680881E-02
 -7.39580671943E-02 -7.67778751694E-02 -7.97053667397E-02 -8.27446703426E-02
 -8.59000741967E-02 -8.91760326237E-02 -9.25771726311E-02 -9.61083007711E-02
 -9.97744102843E-02 -1.03580688545E-01 -1.07532524819E-01 -1.11635518352E-01
 -1.15895486799E-01 -1.20318475016E-01 -1.24910764232E-01 -1.29678881607E-01
 -1.34629610218E-01 -1.39769999467E-01 -1.45107375956E-01 -1.50649354832E-01
 -1.56403851640E-01 -1.62379094702E-01 -1.68583638050E-01 -1.75026374940E-01
 -1.81716551983E-01 -1.88663783911E-01 -1.95878069026E-01 -2.03369805362E-01
 -2.11149807590E-01 -2.19229324715E-01 -2.27620058603E-01 -2.36334183377E-01
 -2.45384365739E-01 -2.54783786255E-01 -2.64546161666E-01 -2.74685768262E-01
 -2.85217466400E-01 -2.96156726204E-01 -3.07519654523E-01 -3.19323023203E-01
 -3.31584298750E-01 -3.44321673453E-01 -3.57554098039E-01 -3.71301315933E-01
 -3.85583899204E-01 -4.00423286290E-01 -4.15841821558E-01 -4.31862796805E-01
 -4.48510494750E-01 -4.65810234630E-01 -4.83788419977E-01 -5.02472588585E-01
 -5.21891464793E-01 -5.42075014125E-01 -5.63054500298E-01 -5.84862544635E-01
 -6.07533187811E-01 -6.31101954059E-01 -6.55605917525E-01 -6.81083770822E-01
 -7.07575895520E-01 -7.35124434277E-01 -7.63773364328E-01 -7.93568571756E-01
 -8.24557926075E-01 -8.56791354026E-01 -8.90320912064E-01 -9.25200855936E-01
 -9.61487705770E-01 -9.99240305063E-01 -1.03851987123E+00 -1.07939003421E+00
 -1.12191686027E+00 -1.16616885806E+00 -1.21221695717E+00 -1.26013445999E+00
 -1.30999695327E+00 -1.36188217400E+00 -1.41586981791E+00 -1.47204127561E+00
 -1.53047928985E+00 -1.59126750086E+00 -1.65448987105E+00 -1.72022996310E+00
 -1.78857003163E+00 -1.85958990019E+00 -1.93336558458E+00 -2.00996760527E+00
 -2.08945893582E+00 -2.17189252310E+00 -2.25730829314E+00 -2.34572955962E+00
 -2.43715872631E+00 -2.53157216251E+00 -2.62891411542E+00 -2.72908951127E+00
 -2.83195544880E+00 -2.93731123708E+00 -3.04488672504E+00 -3.15432873234E+00
 -3.26518539191E+00 -3.37688815438E+00 -3.48873135515E+00 -3.59984921281E+00
 -3.70919037558E+00 -3.81549018747E+00 -3.91724124296E+00 -4.01266316062E+00
 -4.09967302815E+00 -4.17585871772E+00 -4.23845815547E+00 -4.28434877492E+00
 -4.31005263688E+00 -4.31176418592E+00 -4.28540918583E+00 -4.22674455212E+00
 -4.13151011338E+00 -3.99564334220E+00 -3.81556779071E+00 -3.58856397731E+00
 -3.31322835076E+00 -2.99001992898E+00 -2.62188053895E+00 -2.21488479225E+00
 -1.77882001807E+00 -1.32751832647E+00 -8.78695636496E-01 -4.53050949210E-01
 -7.24861686648E-02  2.42482532123E-01  4.75787745285E-01  6.18762701762E-01
  6.72224161793E-01  6.46952198697E-01  5.62205924921E-01  4.42593780964E-01
  3.14013970503E-01  1.98932653107E-01  1.11496791710E-01  5.50424624146E-02
  2.42586107415E-02  1.03021205893E-02  5.22058040847E-03  3.83682345047E-03